 Gaussian 16, Revision A.03,
 Gaussian 16:  EM64M-G16RevA.03 25-Dec-2016

 -------------------------------------------------------
 # opt=loose b3lyp scrf=(solvent=water) def2svp em=gd3bj
 -------------------------------------------------------

 -------
 MODEL 1
 -------
 Symbolic Z-matrix:
 Charge =  0 Multiplicity = 1

 SCF Done:  E(RB3LYP) =  -1354.49384601     A.U. after   14 cycles
 SCF Done:  E(RB3LYP) =  -1354.52060351     A.U. after   11 cycles
 SCF Done:  E(RB3LYP) =  -1354.52675886     A.U. after   11 cycles
 SCF Done:  E(RB3LYP) =  -1354.52764584     A.U. after   13 cycles
 SCF Done:  E(RB3LYP) =  -1354.52889049     A.U. after   11 cycles
 SCF Done:  E(RB3LYP) =  -1354.53028306     A.U. after   11 cycles
 SCF Done:  E(RB3LYP) =  -1354.53185988     A.U. after   13 cycles
 SCF Done:  E(RB3LYP) =  -1354.53223454     A.U. after   13 cycles
 SCF Done:  E(RB3LYP) =  -1354.53248189     A.U. after   10 cycles
 SCF Done:  E(RB3LYP) =  -1354.53252122     A.U. after    9 cycles
 SCF Done:  E(RB3LYP) =  -1354.53253162     A.U. after   10 cycles
 SCF Done:  E(RB3LYP) =  -1354.53253440     A.U. after    8 cycles
 SCF Done:  E(RB3LYP) =  -1354.53253514     A.U. after    8 cycles
 Optimization completed.
    -- Stationary point found.

                         Standard orientation:
 ---------------------------------------------------------------------
 Center     Atomic      Atomic             Coordinates (Angstroms)
 Number     Number       Type             X           Y           Z
 ---------------------------------------------------------------------
      1          6           0       -2.595110   -0.689994   -0.015168
      2          6           0       -1.395459   -1.520744    0.023273
      3          6           0       -1.820259   -2.820760    0.019858
      4          6           0       -3.633393   -1.591892   -0.045684
      5          8           0       -3.191088   -2.865175   -0.027145
      6          8           0       -4.949585   -1.392999   -0.068396
      7          6           0       -2.715501    0.773689    0.069823
      8          6           0       -1.841742    1.527702    0.877815
      9          6           0       -1.963916    2.915454    0.963110
     10          6           0       -2.967667    3.581835    0.252112
     11          6           0       -3.849299    2.844377   -0.544663
     12          6           0       -3.723134    1.456742   -0.638402
     13          6           0        0.011002   -1.090264   -0.016530
     14          6           0        0.412756   -0.021376   -0.841615
     15          6           0        1.747533    0.369755   -0.902137
     16          6           0        2.690839   -0.312685   -0.128978
     17          6           0        2.324984   -1.384464    0.688188
     18          6           0        0.985166   -1.764199    0.744130
     19         16           0        4.406589    0.192749   -0.193597
     20          8           0        4.642447    0.855935   -1.490608
     21          8           0        5.241389   -0.962369    0.189149
     22          6           0        4.564894    1.434518    1.094068
     23          1           0       -1.305354   -3.775781   -0.010587
     24          1           0       -5.414649   -2.238123    0.040210
     25          1           0       -1.066074    1.018738    1.451971
     26          1           0       -1.274424    3.479648    1.596012
     27          1           0       -3.063443    4.667960    0.320831
     28          1           0       -4.637875    3.353531   -1.104332
     29          1           0       -4.409296    0.890908   -1.270998
     30          1           0       -0.328385    0.497740   -1.449967
     31          1           0        2.063314    1.187596   -1.551331
     32          1           0        3.082433   -1.910300    1.271061
     33          1           0        0.683635   -2.586409    1.395617
     34          1           0        5.615966    1.753869    1.068012
     35          1           0        3.894896    2.271657    0.862440
     36          1           0        4.318367    0.975690    2.059404
 ---------------------------------------------------------------------

 The electronic state is 1-A.
 Alpha  occ. eigenvalues --  -89.06160 -19.21643 -19.19179 -19.12207 -19.12193
 Alpha  occ. eigenvalues --  -10.30840 -10.24408 -10.22473 -10.22308 -10.22218
 Alpha  occ. eigenvalues --  -10.21630 -10.21592 -10.20888 -10.20814 -10.20702
 Alpha  occ. eigenvalues --  -10.20687 -10.19658 -10.19342 -10.19331 -10.19227
 Alpha  occ. eigenvalues --  -10.19198 -10.19175  -8.12742  -6.09575  -6.09488
 Alpha  occ. eigenvalues --   -6.09419  -1.13791  -1.09550  -1.06480  -0.98546
 Alpha  occ. eigenvalues --   -0.87936  -0.85710  -0.82439  -0.78918  -0.76668
 Alpha  occ. eigenvalues --   -0.76100  -0.74261  -0.74039  -0.72944  -0.66898
 Alpha  occ. eigenvalues --   -0.63289  -0.62966  -0.61821  -0.60006  -0.59456
 Alpha  occ. eigenvalues --   -0.57616  -0.55245  -0.52822  -0.51691  -0.49551
 Alpha  occ. eigenvalues --   -0.49320  -0.48692  -0.48250  -0.47440  -0.46150
 Alpha  occ. eigenvalues --   -0.45766  -0.45462  -0.44835  -0.44234  -0.43162
 Alpha  occ. eigenvalues --   -0.42624  -0.42527  -0.41799  -0.41591  -0.40497
 Alpha  occ. eigenvalues --   -0.38916  -0.38742  -0.38433  -0.37536  -0.36417
 Alpha  occ. eigenvalues --   -0.35352  -0.34570  -0.33509  -0.32125  -0.31668
 Alpha  occ. eigenvalues --   -0.30309  -0.29504  -0.28149  -0.27762  -0.25982
 Alpha  occ. eigenvalues --   -0.24474  -0.21061
 Alpha virt. eigenvalues --   -0.05647  -0.03238  -0.02313  -0.01057   0.01579
 Alpha virt. eigenvalues --    0.05363   0.05609   0.06374   0.07042   0.07407
 Alpha virt. eigenvalues --    0.08602   0.08993   0.09400   0.09880   0.10516

 Mulliken charges:
               1
     1  C   -0.017387
     2  C    0.053106
     3  C    0.056686
     4  C    0.176098
     5  O   -0.224567
     6  O   -0.172816
     7  C    0.018794
     8  C   -0.021656
     9  C   -0.001833
    10  C    0.004066
    11  C    0.007124
    12  C   -0.024864
    13  C    0.043321
    14  C    0.000438
    15  C    0.025036
    16  C   -0.103843
    17  C    0.033675
    18  C   -0.017040
    19  S    0.760528
    20  O   -0.525644
    21  O   -0.525628
    22  C   -0.013333
    23  H    0.024861
    24  H    0.222079
    25  H   -0.008806
    26  H   -0.003856
    27  H   -0.003030
    28  H   -0.003812
    29  H   -0.015980
    30  H    0.006882
    31  H    0.007272
    32  H    0.007886
    33  H   -0.000146
    34  H    0.087478
    35  H    0.074649
    36  H    0.074262
 Sum of Mulliken charges =  -0.00000

 Dipole moment (field-independent basis, Debye):
    X=             -6.1195    Y=             -0.2963    Z=              3.7084  Tot=              7.1616
 Quadrupole moment (field-independent basis, Debye-Ang):
   XX=           -149.6903   YY=           -117.2291   ZZ=           -135.1172
   XY=             20.8703   XZ=             20.1274   YZ=              1.2976

 Normal termination of Gaussian 16 at Thu Mar 10 20:05:10 2022.
