 Gaussian 16, Revision A.03,
 Gaussian 16:  EM64M-G16RevA.03 25-Dec-2016

 -----------------------------------------------------------
 # b3lyp/6-31g scrf=(solvent=water) scf=qc geom=connectivity
 -----------------------------------------------------------

 -------
 MODEL 1
 -------
 Symbolic Z-matrix:
 Charge =  0 Multiplicity = 1

                         Standard orientation:
 ---------------------------------------------------------------------
 Center     Atomic      Atomic             Coordinates (Angstroms)
 Number     Number       Type             X           Y           Z
 ---------------------------------------------------------------------
      1          6           0       -2.608873   -0.769654    0.015796
      2          6           0       -1.374561   -1.513614   -0.072971
      3          6           0       -1.751378   -2.866108   -0.116719
      4          6           0       -3.619371   -1.750362    0.009922
      5          8           0       -3.070349   -2.955250   -0.068984
      6          8           0       -4.995780   -1.501445    0.069074
      7          6           0       -2.824652    0.768325    0.093708
      8          6           0       -2.094480    1.550682    0.984638
      9          6           0       -2.310741    2.940267    1.047476
     10          6           0       -3.261736    3.540617    0.223953
     11          6           0       -3.996590    2.757213   -0.663817
     12          6           0       -3.776645    1.372244   -0.726314
     13          6           0        0.050511   -1.019734   -0.098394
     14          6           0        0.443117    0.093325   -0.835542
     15          6           0        1.778379    0.485727   -0.821950
     16          6           0        2.705079   -0.228641   -0.080741
     17          6           0        2.304183   -1.341752    0.646958
     18          6           0        0.979090   -1.736738    0.628904
     19         16           0        4.418827    0.237651   -0.036055
     20          8           0        5.150817   -0.387013   -1.199981
     21          8           0        5.027177   -0.229246    1.273713
     22          6           0        4.586205    2.005475   -0.173499
     23          1           0       -1.327920   -3.382376    0.718941
     24          1           0       -1.396007   -3.307978   -1.024572
     25          1           0       -1.391470    1.111328    1.601095
     26          1           0       -1.763769    3.516259    1.705910
     27          1           0       -3.420645    4.559180    0.270971
     28          1           0       -4.702410    3.196536   -1.275903
     29          1           0       -4.324802    0.796387   -1.385508
     30          1           0       -0.249826    0.622959   -1.387236
     31          1           0        2.078355    1.311517   -1.364631
     32          1           0        2.994815   -1.873366    1.200585
     33          1           0        0.684168   -2.570115    1.161054
     34          1           0        4.157547    2.333588   -1.097560
     35          1           0        5.622750    2.268175   -0.147650
     36          1           0        4.077848    2.475503    0.642357
 ---------------------------------------------------------------------

 SCF Done:  E(RB3LYP) =  -1354.76529245     a.u. after    9 cycles

 The electronic state is 1-A.
 Alpha  occ. eigenvalues --  -89.11410 -19.22674 -19.14149 -19.13810 -19.13223
 Alpha  occ. eigenvalues --  -10.33460 -10.26272 -10.25661 -10.25470 -10.24126
 Alpha  occ. eigenvalues --  -10.23924 -10.23364 -10.22760 -10.22405 -10.21875
 Alpha  occ. eigenvalues --  -10.21738 -10.21641 -10.19131 -10.18912 -10.18796
 Alpha  occ. eigenvalues --  -10.18711 -10.18641  -8.18742  -6.14921  -6.14752
 Alpha  occ. eigenvalues --   -6.14595  -1.18957  -1.13805  -1.00491  -0.96104
 Alpha  occ. eigenvalues --   -0.91734  -0.87686  -0.86075  -0.83222  -0.80315
 Alpha  occ. eigenvalues --   -0.79758  -0.78928  -0.75900  -0.75755  -0.70865
 Alpha  occ. eigenvalues --   -0.66581  -0.64907  -0.62775  -0.62324  -0.60576
 Alpha  occ. eigenvalues --   -0.58912  -0.57041  -0.55388  -0.55104  -0.52486
 Alpha  occ. eigenvalues --   -0.51367  -0.50463  -0.49498  -0.48996  -0.48310
 Alpha  occ. eigenvalues --   -0.47095  -0.46891  -0.46005  -0.45056  -0.43887
 Alpha  occ. eigenvalues --   -0.43518  -0.43063  -0.42803  -0.41434  -0.40635
 Alpha  occ. eigenvalues --   -0.39947  -0.39335  -0.38563  -0.37196  -0.35795
 Alpha  occ. eigenvalues --   -0.35747  -0.33574  -0.32112  -0.30909  -0.30069
 Alpha  occ. eigenvalues --   -0.29486  -0.29010  -0.28338  -0.27361  -0.26491
 Alpha  occ. eigenvalues --   -0.25547  -0.24477
 Alpha virt. eigenvalues --   -0.09613  -0.03743  -0.03572  -0.01390  -0.00684
 Alpha virt. eigenvalues --    0.02314   0.05202   0.05794   0.07835   0.08413
 Alpha virt. eigenvalues --    0.09238   0.10133   0.10876   0.11939   0.12872

 Mulliken charges:
               1
     1  C    0.005823
     2  C   -0.036451
     3  C   -0.119342
     4  C    0.456842
     5  O   -0.432759
     6  O   -0.573304
     7  C    0.058063
     8  C   -0.133349
     9  C   -0.136306
    10  C   -0.111976
    11  C   -0.136871
    12  C   -0.120333
    13  C    0.064476
    14  C   -0.077507
    15  C   -0.113241
    16  C   -0.255676
    17  C   -0.094858
    18  C   -0.109879
    19  S    1.134217
    20  O   -0.618230
    21  O   -0.634177
    22  C   -0.657358
    23  H    0.233518
    24  H    0.237889
    25  H    0.143436
    26  H    0.138125
    27  H    0.138765
    28  H    0.138487
    29  H    0.140096
    30  H    0.175200
    31  H    0.180830
    32  H    0.189262
    33  H    0.174354
    34  H    0.245079
    35  H    0.261953
    36  H    0.245201
 Sum of Mulliken charges =  -0.00000

 Dipole moment (field-independent basis, Debye):
    X=              1.3898    Y=              5.7314    Z=             -0.9324  Tot=              5.9708
 Quadrupole moment (field-independent basis, Debye-Ang):
   XX=           -228.6484   YY=           -110.3256   ZZ=           -136.0443
   XY=              6.5584   XZ=              4.1243   YZ=             -4.3139

 Normal termination of Gaussian 16 at Thu Mar 10 13:16:03 2022.
